----- GAMESS execution script 'rungms' -----
This job is running on host chemcompute-node-0.novalocal
under operating system Linux at Wed Dec 22 16:28:38 UTC 2021
SLURM has assigned the following compute nodes to this run:
chemcompute-node-0
Available scratch disk space (Kbyte units) at beginning of the job is
Filesystem     1K-blocks     Used Available Use% Mounted on
/dev/sda1       62903276 16874600  46028676  27% /
GAMESS temporary binary files will be written to /scratch/331299
GAMESS supplementary output files will be written to /data/slurm/369288
Copying input file 369288.inp to your run's scratch directory...
The generated host list is
chemcompute-node-0.novalocal

 Distributed Data Interface kickoff program.
 Initiating 1 compute processes on 1 nodes to run the following command:
 /data/gamess-2019R1-ddi/gamess.00.x 369288 

          ******************************************************
          *         GAMESS VERSION = 30 JUN 2019 (R1)          *
          *             FROM IOWA STATE UNIVERSITY             *
          * M.W.SCHMIDT, K.K.BALDRIDGE, J.A.BOATZ, S.T.ELBERT, *
          *   M.S.GORDON, J.H.JENSEN, S.KOSEKI, N.MATSUNAGA,   *
          *          K.A.NGUYEN, S.J.SU, T.L.WINDUS,           *
          *       TOGETHER WITH M.DUPUIS, J.A.MONTGOMERY       *
          *         J.COMPUT.CHEM.  14, 1347-1363(1993)        *
          **************** 64 BIT LINUX VERSION ****************

  SINCE 1993, STUDENTS AND POSTDOCS WORKING AT IOWA STATE UNIVERSITY
  AND ALSO IN THEIR VARIOUS JOBS AFTER LEAVING ISU HAVE MADE IMPORTANT
  CONTRIBUTIONS TO THE CODE:
     IVANA ADAMOVIC, CHRISTINE AIKENS, YURI ALEXEEV, POOJA ARORA,
     ANDREY ASADCHEV, ROB BELL, PRADIPTA BANDYOPADHYAY, JONATHAN BENTZ,
     COLLEEN BERTONI, BRETT BODE, KURT BRORSEN, CALEB CARLIN, GALINA CHABAN,
     WEI CHEN, CHEOL HO CHOI, PAUL DAY, ALBERT DEFUSCO, NUWAN DESILVA,
     TIM DUDLEY, DMITRI FEDOROV, ALEX FINDLATER, GRAHAM FLETCHER, 
     MARK FREITAG, KURT GLAESEMANN, ANASTASIA GUNINA,
     DAN KEMP, GRANT MERRILL, NORIYUKI MINEZAWA, JONATHAN MULLIN,
     TAKESHI NAGATA, SEAN NEDD, HEATHER NETZLOFF, BOSILJKA NJEGIC, RYAN OLSON,
     MIKE PAK, BUU PHAM,
     SPENCER PRUITT, LUKE ROSKOP, JIM SHOEMAKER, LYUDMILA SLIPCHENKO,
     TONY SMITH, SAROM SOK LEANG, JIE SONG, TETSUYA TAKETSUGU, SIMON WEBB,
     PENG XU, SOOHAENG YOO, FEDERICO ZAHARIEV

  ADDITIONAL CODE HAS BEEN PROVIDED BY COLLABORATORS IN OTHER GROUPS:
     IOWA STATE UNIVERSITY:
          JOE IVANIC, AARON WEST, LAIMUTIS BYTAUTAS, KLAUS RUEDENBERG
     UNIVERSITY OF TOKYO: KIMIHIKO HIRAO, TAKAHITO NAKAJIMA,
          TAKAO TSUNEDA, MUNEAKI KAMIYA, SUSUMU YANAGISAWA,
          KIYOSHI YAGI, MAHITO CHIBA, SEIKEN TOKURA, NAOAKI KAWAKAMI
     UNIVERSITY OF AARHUS: FRANK JENSEN
     UNIVERSITY OF IOWA: VISVALDAS KAIRYS, HUI LI
     NATIONAL INST. OF STANDARDS AND TECHNOLOGY: WALT STEVENS, DAVID GARMER
     UNIVERSITY OF PISA: BENEDETTA MENNUCCI, JACOPO TOMASI
     UNIVERSITY OF MEMPHIS: HENRY KURTZ, PRAKASHAN KORAMBATH
     UNIVERSITY OF ALBERTA: TOBY ZENG, MARIUSZ KLOBUKOWSKI
     UNIVERSITY OF NEW ENGLAND: MARK SPACKMAN
     MIE UNIVERSITY: HIROAKI UMEDA
     NAT. INST. OF ADVANCED INDUSTRIAL SCIENCE AND TECHNOLOGY: KAZUO KITAURA
     MICHIGAN STATE UNIVERSITY:
          KAROL KOWALSKI, MARTA WLOCH, JEFFREY GOUR, JESSE LUTZ,
          WEI LI, JUN SHEN, J. EMILIANO DEUSTUA, PIOTR PIECUCH
     UNIVERSITY OF MINNESOTA:
          YINAN SHU
     UNIVERSITY OF SILESIA: MONIKA MUSIAL, STANISLAW KUCHARSKI
     FACULTES UNIVERSITAIRES NOTRE-DAME DE LA PAIX:
          OLIVIER QUINET, BENOIT CHAMPAGNE
     UNIVERSITY OF CALIFORNIA - SANTA BARBARA: BERNARD KIRTMAN
     INSTITUTE FOR MOLECULAR SCIENCE:
          KAZUYA ISHIMURA, MICHIO KATOUDA, AND SHIGERU NAGASE
     UNIVERSITY OF NOTRE DAME: ANNA POMOGAEVA, DAN CHIPMAN
     KYUSHU UNIVERSITY:
          HARUYUKI NAKANO,
          FENG LONG GU, JACEK KORCHOWIEC, MARCIN MAKOWSKI, AND YURIKO AOKI,
          HIROTOSHI MORI AND EISAKU MIYOSHI
     PENNSYLVANIA STATE UNIVERSITY:
          TZVETELIN IORDANOV, CHET SWALINA, JONATHAN SKONE,
          SHARON HAMMES-SCHIFFER
     WASEDA UNIVERSITY:
          MASATO KOBAYASHI, TOMOKO AKAMA, TSUGUKI TOUMA,
          TAKESHI YOSHIKAWA, YASUHIRO IKABATA, JUNJI SEINO,
          YUYA NAKAJIMA, HIROMI NAKAI
     NANJING UNIVERSITY: SHUHUA LI
     UNIVERSITY OF NEBRASKA:
          PEIFENG SU, DEJUN SI, NANDUN THELLAMUREGE, YALI WANG, HUI LI
     UNIVERSITY OF ZURICH: ROBERTO PEVERATI, KIM BALDRIDGE
     N. COPERNICUS UNIVERSITY AND JACKSON STATE UNIVERSITY:
          MARIA BARYSZ
     UNIVERSITY OF COPENHAGEN: Jimmy Kromann, CASPER STEINMANN
     TOKYO INSTITUTE OF TECHNOLOGY: HIROYA NAKATA
     NAGOYA UNIVERSITY: YOSHIO NISHIMOTO, STEPHAN IRLE
     MOSCOW STATE UNIVERSITY: VLADIMIR MIRONOV
     A.N.NESMEYANOV INSTITUTE OF ORGANOELEMENT COMPOUNDS OF RUSSIAN ACADEMY OF SCIENCES:
          IGOR S. GERASIMOV

 EXECUTION OF GAMESS BEGUN Wed Dec 22 16:28:39 2021

            ECHO OF THE FIRST FEW INPUT CARDS -
 INPUT CARD>!File created by the GAMESS Input Deck Generator Plugin for Avogadro            
 INPUT CARD> $BASIS GBASIS=STO NGAUSS=3 $END                                                
 INPUT CARD> $CONTRL SCFTYP=RHF RUNTYP=IRC $END                                             
 INPUT CARD> $STATPT HESS=READ ihrep=5 $END                                                 
 INPUT CARD> $irc npoint=1000 saddle=.t. tsengy==.t. forwrs=.f. OPTTOL=0.0005 stride=0.1 $en
 INPUT CARD>                                                                                
 INPUT CARD> $DATA                                                                          
 INPUT CARD>Title                                                                           
 INPUT CARD>C1                                                                              
 INPUT CARD>C     6.0    -3.88998485    -0.22537115    -0.23956929                          
 INPUT CARD>N     7.0    -2.66725445     0.41976401    -0.01613721                          
 INPUT CARD>H     1.0    -1.86354840    -0.06886484    -0.44757867                          
 INPUT CARD>Cl    17.0    -5.26587915     0.63814306     0.47002229                         
 INPUT CARD>H     1.0    -3.86983061    -1.28076398     0.03050900                          
 INPUT CARD>H     1.0    -2.65835786     1.42301142    -0.27000600                          
 INPUT CARD>H     1.0    -1.84503543     0.66438949     1.79054868                          
 INPUT CARD> $END                                                                           
 INPUT CARD>                                                                                
 INPUT CARD>                                                                                
 INPUT CARD> $HESS                                                                          
 INPUT CARD>ENERGY IS     -547.7148256117 E(NUC) IS      101.1039751226                     
 INPUT CARD> 1  1 6.50478100E-01 4.43162378E-02-7.64781119E-02-3.74936743E-01-1.32474432E-01
 INPUT CARD> 1  2-9.12619304E-03-2.52768039E-02-1.47461195E-02-2.33753508E-02-1.87908120E-01
 INPUT CARD> 1  3 9.96600492E-02 1.09683804E-01-6.48008588E-02 4.47275850E-03 1.81718444E-02
 INPUT CARD> 1  4 7.63630577E-03 3.40117279E-04-9.22039038E-03-5.19207643E-03-1.56868676E-03
 INPUT CARD> 1  5-9.65534094E-03                                                            
 INPUT CARD> 2  1 4.43162378E-02 7.55858923E-01-4.58583220E-02-1.32631805E-01-2.21160031E-01
 INPUT CARD> 2  2-6.01076619E-04 2.03930664E-02 1.58733235E-02-1.00817461E-03 9.80695248E-02
 INPUT CARD> 2  3-1.11744926E-01-5.92118257E-02 2.34494107E-02-4.29337760E-01 1.41448800E-01
 INPUT CARD> 2  4-4.52411595E-02-9.91805640E-03-1.96979229E-02-8.35480673E-03 4.28450932E-04
 INPUT CARD> 2  5-1.50712566E-02                                                            
 INPUT CARD> 3  1-7.64781119E-02-4.58583220E-02 1.18443044E-01 1.73328169E-02-7.84765069E-04
 INPUT CARD> 3  2-4.84163608E-03 1.41811384E-02 9.47172201E-03-3.78531191E-03 5.64426076E-02
 INPUT CARD> 3  3-3.64787832E-02-4.34946548E-02 9.36188388E-04 7.87065765E-02-4.10081437E-02
 INPUT CARD> 3  4 8.38766544E-03 3.93414043E-03-6.18373408E-03-2.08021924E-02-8.99109104E-03
 INPUT CARD> 3  5-1.91286962E-02                                                            
 INPUT CARD> 4  1-3.74936743E-01-1.32631805E-01 1.73328169E-02 8.85324071E-01-3.64318939E-02
 INPUT CARD> 4  2-2.40489172E-01-3.62050193E-01 1.68342657E-01 2.05411032E-01-4.05875409E-02
 INPUT CARD> 4  3-7.41722925E-03-1.46070964E-02-4.23793652E-04-2.34420467E-03-2.52046475E-02
 INPUT CARD> 4  4-8.82876587E-02 7.46961378E-03 1.92950824E-02-1.90380589E-02 3.01321743E-03
 INPUT CARD> 4  5 3.82617499E-02                                                            
 INPUT CARD> 5  1-1.32474432E-01-2.21160031E-01-7.84765069E-04-3.64318939E-02 1.00253970E+00
 INPUT CARD> 5  2-2.58665288E-02 1.79913394E-01-2.03101933E-01-1.09939758E-01 2.68460285E-02
 INPUT CARD> 5  3 7.66859274E-03-6.69039469E-03-4.66447913E-02-1.50205086E-02-2.30091907E-02
 INPUT CARD> 5  4 4.23239538E-03-5.35990085E-01 1.52913695E-01 4.55920818E-03-3.49355476E-02
 INPUT CARD> 5  5 1.33767492E-02                                                            
 INPUT CARD> 6  1-9.12619304E-03-6.01076619E-04-4.84163608E-03-2.40489172E-01-2.58665288E-02
 INPUT CARD> 6  2 1.61758075E-01 1.56991238E-01-8.74097934E-02-1.14569173E-01 3.05416750E-02
 INPUT CARD> 6  3-1.59794022E-03-1.30884158E-02 9.36511274E-03 3.01473419E-03-1.42527530E-02
 INPUT CARD> 6  4 1.28415084E-02 9.94934628E-02-6.07994364E-02 3.98759247E-02 1.29674991E-02
    1000000 WORDS OF MEMORY AVAILABLE

     BASIS OPTIONS
     -------------
     GBASIS=STO          IGAUSS=       3      POLAR=NONE    
     NDFUNC=       0     NFFUNC=       0     DIFFSP=       F
     NPFUNC=       0      DIFFS=       F     BASNAM=        


     RUN TITLE
     ---------
 Title                                                                           

 THE POINT GROUP OF THE MOLECULE IS C1      
 THE ORDER OF THE PRINCIPAL AXIS IS     0

 ATOM      ATOMIC                      COORDINATES (BOHR)
           CHARGE         X                   Y                   Z
 C           6.0    -7.3510054629       -0.4258897190       -0.4527203132
 N           7.0    -5.0403800500        0.7932389584       -0.0304949051
 H           1.0    -3.5215958409       -0.1301356778       -0.8458010442
 CL         17.0    -9.9510686780        1.2059155244        0.8882133362
 H           1.0    -7.3129194718       -2.4202929771        0.0576536502
 H           1.0    -5.0235679327        2.6891016612       -0.5102373550
 H           1.0    -3.4866114003        1.2555140852        3.3836463729

          INTERNUCLEAR DISTANCES (ANGS.)
          ------------------------------

                1 C          2 N          3 H          4 CL         5 H     

   1 C       0.0000000    1.4004253 *  2.0430876 *  1.7726427 *  1.0895882 *
   2 N       1.4004253 *  0.0000000    1.0348156 *  2.6527139 *  2.0833052 *
   3 H       2.0430876 *  1.0348156 *  0.0000000    3.5941211    2.3921613 *
   4 CL      1.7726427 *  2.6527139 *  3.5941211    0.0000000    2.4133644 *
   5 H       1.0895882 *  2.0833052 *  2.3921613 *  2.4133644 *  0.0000000  
   6 H       2.0579107 *  1.0349077 *  1.6996908 *  2.8218482 *  2.9779820 *
   7 H       3.0157704    1.9999999 *  2.3552534 *  3.6669675    3.3137829  

                6 H          7 H     

   1 C       2.0579107 *  3.0157704  
   2 N       1.0349077 *  1.9999999 *
   3 H       1.6996908 *  2.3552534 *
   4 CL      2.8218482 *  3.6669675  
   5 H       2.9779820 *  3.3137829  
   6 H       0.0000000    2.3415564 *
   7 H       2.3415564 *  0.0000000  

  * ... LESS THAN  3.000


     ATOMIC BASIS SET
     ----------------
 THE CONTRACTED PRIMITIVE FUNCTIONS HAVE BEEN UNNORMALIZED
 THE CONTRACTED BASIS FUNCTIONS ARE NOW NORMALIZED TO UNITY

  SHELL TYPE  PRIMITIVE        EXPONENT          CONTRACTION COEFFICIENT(S)

 C         

      1   S       1            71.6168373    0.154328967295
      1   S       2            13.0450963    0.535328142282
      1   S       3             3.5305122    0.444634542185

      2   L       4             2.9412494   -0.099967229187    0.155916274999
      2   L       5             0.6834831    0.399512826089    0.607683718598
      2   L       6             0.2222899    0.700115468880    0.391957393099

 N         

      3   S       7            99.1061690    0.154328967295
      3   S       8            18.0523124    0.535328142282
      3   S       9             4.8856602    0.444634542185

      4   L      10             3.7804559   -0.099967229187    0.155916274999
      4   L      11             0.8784966    0.399512826089    0.607683718598
      4   L      12             0.2857144    0.700115468880    0.391957393099

 H         

      5   S      13             3.4252509    0.154328967295
      5   S      14             0.6239137    0.535328142282
      5   S      15             0.1688554    0.444634542185

 CL        

      6   S      16           601.3456136    0.154328967295
      6   S      17           109.5358542    0.535328142282
      6   S      18            29.6446769    0.444634542185

      7   L      19            38.9604189   -0.099967229187    0.155916274999
      7   L      20             9.0535635    0.399512826089    0.607683718598
      7   L      21             2.9444998    0.700115468880    0.391957393099

      8   L      22             2.2112785   -0.219620369005    0.010587604289
      8   L      23             0.6169411    0.225595433605    0.595167005266
      8   L      24             0.2414666    0.900398426019    0.462001011973

 H         

      9   S      25             3.4252509    0.154328967295
      9   S      26             0.6239137    0.535328142282
      9   S      27             0.1688554    0.444634542185

 H         

     10   S      28             3.4252509    0.154328967295
     10   S      29             0.6239137    0.535328142282
     10   S      30             0.1688554    0.444634542185

 H         

     11   S      31             3.4252509    0.154328967295
     11   S      32             0.6239137    0.535328142282
     11   S      33             0.1688554    0.444634542185

 TOTAL NUMBER OF BASIS SET SHELLS             =   11
 NUMBER OF CARTESIAN GAUSSIAN BASIS FUNCTIONS =   23
 NUMBER OF ELECTRONS                          =   34
 CHARGE OF MOLECULE                           =    0
 SPIN MULTIPLICITY                            =    1
 NUMBER OF OCCUPIED ORBITALS (ALPHA)          =   17
 NUMBER OF OCCUPIED ORBITALS (BETA )          =   17
 TOTAL NUMBER OF ATOMS                        =    7
 THE NUCLEAR REPULSION ENERGY IS      101.1039751226

     $CONTRL OPTIONS
     ---------------
 SCFTYP=RHF          RUNTYP=IRC          EXETYP=RUN     
 MPLEVL=       0     CITYP =NONE         CCTYP =NONE         VBTYP =NONE    
 DFTTYP=NONE         TDDFT =NONE    
 MULT  =       1     ICHARG=       0     NZVAR =       0     COORD =UNIQUE  
 PP    =NONE         RELWFN=NONE         LOCAL =NONE         NUMGRD=       F
 ISPHER=      -1     NOSYM =       0     MAXIT =      30     UNITS =ANGS    
 PLTORB=       F     MOLPLT=       F     AIMPAC=       F     FRIEND=        
 NPRINT=       7     IREST =       0     GEOM  =INPUT   
 NORMF =       0     NORMP =       0     ITOL  =      20     ICUT  =       9
 INTTYP=BEST         GRDTYP=BEST         QMTTOL= 1.0E-06

     $SYSTEM OPTIONS
     ---------------
  REPLICATED MEMORY=     1000000 WORDS (ON EVERY NODE).
 DISTRIBUTED MEMDDI=           0 MILLION WORDS IN AGGREGATE,
 MEMDDI DISTRIBUTED OVER   1 PROCESSORS IS           0 WORDS/PROCESSOR.
 TOTAL MEMORY REQUESTED ON EACH PROCESSOR=     1000000 WORDS.
 TIMLIM=      525600.00 MINUTES, OR     365.0 DAYS.
 PARALL= F  BALTYP=  DLB     KDIAG=    0  COREFL= F
 MXSEQ2=     300 MXSEQ3=     150  mem10=         0

          ----------------
          PROPERTIES INPUT
          ----------------

     MOMENTS            FIELD           POTENTIAL          DENSITY
 IEMOM =       1   IEFLD =       0   IEPOT =       0   IEDEN =       0
 WHERE =COMASS     WHERE =NUCLEI     WHERE =NUCLEI     WHERE =NUCLEI  
 OUTPUT=BOTH       OUTPUT=BOTH       OUTPUT=BOTH       OUTPUT=BOTH    
 IEMINT=       0   IEFINT=       0                     IEDINT=       0
                                                       MORB  =       0
          EXTRAPOLATION IN EFFECT
          SOSCF IN EFFECT
 ORBITAL PRINTING OPTION: NPREO=     1    23     2     1

     -------------------------------
     INTEGRAL TRANSFORMATION OPTIONS
     -------------------------------
     NWORD  =            0
     CUTOFF = 1.0E-09     MPTRAN =       0
     DIRTRF =       F     AOINTS =DUP     

          ----------------------
          INTEGRAL INPUT OPTIONS
          ----------------------
 NOPK  =       1 NORDER=       0 SCHWRZ=       T

     ------------------------------------------
     THE POINT GROUP IS C1 , NAXIS= 0, ORDER= 1
     ------------------------------------------

     DIMENSIONS OF THE SYMMETRY SUBSPACES ARE
 A   =   23

 ..... DONE SETTING UP THE RUN .....
 STEP CPU TIME =     0.03 TOTAL CPU TIME =          0.0 (      0.0 MIN)
 TOTAL WALL CLOCK TIME=          0.0 SECONDS, CPU UTILIZATION IS    75.00%

 ILLEGAL LOGICAL INPUT VALUE (MUST BE .T. OR .F. OR .TRUE. OR .FALSE. ONLY)

 **** ERROR READING INPUT GROUP $IRC      *****
 THE PROBLEM IS WITH THIS INPUT LINE, NEAR THE X MARKER
 $IRC NPOINT=1000 SADDLE=.T. TSENGY==.T. FORWRS=.F. OPTTOL=0.0005 STRIDE=0.1 $EN
                                     X
 THE ONLY KEYWORDS ACCEPTED IN THIS GROUP ARE:
  SADDLE    FORWRD    STABLZ    EVIB      STRIDE    DELTA   
  SAB       STOTAL    FREQ      CMODE     NPOINT    NEXTPT  
  PACE      TSENGY    ELBOW     GA        READQB    EB      
  GBNORM    GB        GA0       GA1       GA2       GCUT    
  RCUT      ACUT      MXOPT     IHUPD     OPTTOL    NPRT    
  NPUN      IFREEZ    IACTAT  

          -----------------------------
          INTRINSIC REACTION COORDINATE
          -----------------------------
          PACE   =GS2     
          STRIDE = 0.30000 BOHR*SQRT(AMU)
          NPOINT =    1000
          NEXTPT =       0
          STOTAL =  0.0000 BOHR*SQRT(AMU)
          SAB    =  0.0000 BOHR*SQRT(AMU)
          NPRT   =       0
          NPUN   =       0

          SADDLE =       T
          TSENGY =       F
          FORWRD =       T
          EVIB   = 0.00050 HARTREE
          FREQ   =     0.0 CM**-1

          STABLZ =       F
          ELBOW  =  175.00 DEGREES
          DELTA  = 0.02500 BOHR

          READQB =       F
          EB     =        0.0000000000 HARTREES
          GBNORM =        0.0000000000 HARTREES/SQRT(AMU)-BOHR

          GCUT   = 0.0001000 HARTREES/SQRT(AMU)-BOHR
          RCUT   = 0.0010000 BOHR
          ACUT   =    5.00 DEGREES
          MXOPT  =      20
          IHUPD  =       2
 EXECUTION OF GAMESS TERMINATED -ABNORMALLY- AT Wed Dec 22 16:28:39 2021
               580000  WORDS OF DYNAMIC MEMORY USED
 STEP CPU TIME =     0.00 TOTAL CPU TIME =          0.0 (      0.0 MIN)
 TOTAL WALL CLOCK TIME=          0.0 SECONDS, CPU UTILIZATION IS    75.00%
 ddikick.x: application process 0 quit unexpectedly.
 ddikick.x: Sending kill signal to DDI processes.
 ddikick.x: Execution terminated due to error(s).
----- accounting info -----
Files used on the master node chemcompute-node-0.novalocal were:
-rw-r--r--. 1 chemcomp chemcomp     8107 Dec 22 16:28 /scratch/331299/369288.F05
-rw-rw-r--. 1 chemcomp chemcomp        0 Dec 22 16:28 /scratch/331299/369288.F08
-rw-rw-r--. 1 chemcomp chemcomp 16384000 Dec 22 16:28 /scratch/331299/369288.F10
Wed Dec 22 16:28:41 UTC 2021
0.119u 0.066s 0:02.57 6.6%	0+0k 16+232io 0pf+0w
Finishing Up...
Looking for IR data...
Looking for Raman data...
vibramans not found
Looking for thermodynamics data...
Looking for UV-Vis data...
331299
